 Gaussian 16, Revision C.01,
 Gaussian 16:  EM64L-G16RevC.01  3-Jul-2019

 ----------------------------------------------------------------------
 #P M06/6-311G(d,p) Guess=Read Geom=Check SCF(Tight) SCRF(PCM, solvent=
 n-Octanol) pop=chelpg
 ----------------------------------------------------------------------

 P(Qx8O-T) trimer charge population via CHELPG with organic solvent n-O
 ctanol
 ----------------------------------------------------------------------
 Structure from the checkpoint file:  "/temporario/9083010/g16/tmp/Gau-21437.chk"
 Charge =  0 Multiplicity = 1

                         Standard orientation:
 ---------------------------------------------------------------------
 Center     Atomic      Atomic             Coordinates (Angstroms)
 Number     Number       Type             X           Y           Z
 ---------------------------------------------------------------------
      1          6           0       -9.002164    0.611772    0.450354
      2          6           0       -8.002953   -1.466263   -0.157205
      3          6           0       -9.240029   -2.121291    0.061364
      4          6           0      -10.363232   -1.386385    0.474780
      5          6           0      -10.222663   -0.045520    0.662026
      6          6           0       -8.306624   -4.113242   -0.488952
      7          6           0       -7.052250   -3.466805   -0.706199
      8          7           0       -9.367357   -3.464451   -0.117015
      9          7           0       -6.919982   -2.188212   -0.544731
     10          6           0       -7.867966   -0.053724    0.025751
     11          9           0      -11.249097    0.695178    1.066927
     12          9           0       -8.996796    1.921023    0.697772
     13          6           0       -0.600576    0.589154   -0.959413
     14          6           0       -0.664564    2.719431    0.092210
     15          6           0       -2.080054    2.636080    0.149846
     16          6           0       -2.780314    1.507684   -0.380194
     17          6           0       -1.995248    0.510935   -0.912664
     18          6           0       -2.155991    4.647041    1.232980
     19          6           0       -0.736341    4.730953    1.152120
     20          1           0       -2.714508    5.444169    1.720837
     21          7           0       -2.792828    3.629457    0.746279
     22          7           0       -0.021628    3.796331    0.607641
     23          6           0        0.110903    1.666743   -0.482377
     24          9           0       -2.539597   -0.582554   -1.446206
     25          9           0        0.023946   -0.439717   -1.527379
     26          6           0        7.708029    0.603314   -1.047902
     27          6           0        6.916370   -1.196003    0.270113
     28          6           0        5.617478   -0.629428    0.236616
     29          6           0        5.340231    0.593654   -0.446468
     30          6           0        6.425199    1.159659   -1.083406
     31          6           0        4.823022   -2.365221    1.498011
     32          6           0        6.134479   -2.918380    1.541387
     33          1           0        4.005083   -2.875587    2.002911
     34          7           0        4.593230   -1.257517    0.867911
     35          7           0        7.138743   -2.350232    0.946755
     36          8           0        6.268951   -4.049276    2.223397
     37          6           0        9.365450   -1.122164   -0.416921
     38          6           0       10.339501   -0.901568   -1.362052
     39          6           0       11.577839   -1.505717   -1.056271
     40          1           0       10.166854   -0.323879   -2.259608
     41          6           0       11.551009   -2.174822    0.129529
     42          1           0       12.450935   -1.447616   -1.694872
     43          6           0        8.012261   -0.577046   -0.400623
     44          9           0        6.313245    2.287661   -1.783882
     45          9           0        8.644940    1.294998   -1.691831
     46          1           0      -11.312316   -1.880611    0.644206
     47          1           0       12.345386   -2.736598    0.601699
     48          6           0        1.567623    1.723037   -0.560987
     49          6           0        2.358051    2.818967   -0.798480
     50          6           0        3.730842    2.529691   -0.773828
     51          1           0        1.953762    3.805061   -0.982959
     52          6           0        4.021029    1.212860   -0.489873
     53          1           0        4.491381    3.275615   -0.954625
     54          6           0       -6.619117    0.667584   -0.200934
     55          6           0       -6.475394    2.011260   -0.467638
     56          6           0       -5.140927    2.432834   -0.560522
     57          1           0       -7.315027    2.679104   -0.599754
     58          6           0       -4.236504    1.419383   -0.365652
     59          1           0       -4.844486    3.452599   -0.764270
     60         16           0       -5.055413   -0.093734   -0.105657
     61         16           0        2.543938    0.316563   -0.249749
     62         16           0       10.002798   -2.115695    0.873041
     63          6           0        7.576507   -4.611927    2.294359
     64          1           0       -6.192974   -4.059242   -1.014940
     65          8           0       -8.320856   -5.426392   -0.691561
     66          6           0       -9.558083   -6.101390   -0.483756
     67          8           0       -0.179655    5.817094    1.678721
     68          6           0        1.239053    5.920026    1.592396
     69          1           0        1.503245    6.837031    2.115615
     70          1           0        1.557742    5.976712    0.547523
     71          1           0        1.721528    5.058718    2.062193
     72          1           0        7.472338   -5.535328    2.860740
     73          1           0        8.261509   -3.929297    2.804418
     74          1           0        7.964038   -4.819421    1.293236
     75          1           0       -9.363369   -7.150802   -0.696323
     76          1           0      -10.327667   -5.714435   -1.156855
     77          1           0       -9.896456   -5.979668    0.548582
 ---------------------------------------------------------------------

 SCF Done:  E(RM06) =  -3844.96614550     A.U. after    1 cycles

 The electronic state is 1-A.
 Alpha  occ. eigenvalues --  -89.06564 -89.06485 -89.06308 -24.81188 -24.81057
 Alpha  occ. eigenvalues --  -24.80954 -24.80953 -24.80908 -24.80726 -19.26445
 Alpha  occ. eigenvalues --  -19.26294 -19.26276 -14.41827 -14.41719 -14.41418
 Alpha  occ. eigenvalues --  -14.40639 -14.40390 -14.40243 -10.35613 -10.35390
 Alpha  occ. eigenvalues --  -10.35325 -10.35299 -10.35256 -10.35148 -10.34963
 Alpha  occ. eigenvalues --  -10.34912 -10.34909 -10.30884 -10.30832 -10.30493
 Alpha  occ. eigenvalues --  -10.30088 -10.30041 -10.29900 -10.29882 -10.29780
 Alpha  occ. eigenvalues --  -10.29615 -10.29327 -10.29289 -10.29270 -10.28816
 Alpha  occ. eigenvalues --  -10.28607 -10.28521 -10.28427 -10.28393 -10.28274
 Alpha  occ. eigenvalues --  -10.28165 -10.28025 -10.27975 -10.27935 -10.26317
 Alpha  occ. eigenvalues --  -10.25985 -10.24636 -10.24598 -10.24469 -10.24443
 Alpha  occ. eigenvalues --  -10.24404 -10.24140  -8.08646  -8.08560  -8.08407
 Alpha  occ. eigenvalues --   -6.00290  -6.00205  -6.00035  -5.99880  -5.99795
 Alpha  occ. eigenvalues --   -5.99636  -5.99482  -5.99396  -5.99266  -1.30687
 Alpha  occ. eigenvalues --   -1.30671  -1.30410  -1.29056  -1.28985  -1.28881
 Alpha  occ. eigenvalues --   -1.13506  -1.13334  -1.13299  -1.01874  -1.01581
 Alpha  occ. eigenvalues --   -1.01527  -0.95064  -0.94754  -0.94687  -0.92052
 Alpha  occ. eigenvalues --   -0.91672  -0.90954  -0.90167  -0.89429  -0.88863
 Alpha  occ. eigenvalues --   -0.83522  -0.82258  -0.80809  -0.80371  -0.80208
 Alpha  occ. eigenvalues --   -0.80154  -0.77082  -0.76146  -0.75937  -0.75595
 Alpha  occ. eigenvalues --   -0.75346  -0.75160  -0.74856  -0.74295  -0.72552
 Alpha  occ. eigenvalues --   -0.70389  -0.69876  -0.69618  -0.68531  -0.67718
 Alpha  occ. eigenvalues --   -0.67234  -0.66595  -0.65906  -0.64974  -0.62242
 Alpha  occ. eigenvalues --   -0.62101  -0.61290  -0.61168  -0.60956  -0.60447
 Alpha  occ. eigenvalues --   -0.59793  -0.59232  -0.58913  -0.57788  -0.57299
 Alpha  occ. eigenvalues --   -0.57018  -0.56574  -0.56270  -0.56002  -0.55840
 Alpha  occ. eigenvalues --   -0.55760  -0.55358  -0.54266  -0.53762  -0.53589
 Alpha  occ. eigenvalues --   -0.53507  -0.53344  -0.53103  -0.53042  -0.52484
 Alpha  occ. eigenvalues --   -0.52281  -0.51277  -0.51146  -0.51109  -0.51098
 Alpha  occ. eigenvalues --   -0.50722  -0.49873  -0.49778  -0.49758  -0.49601
 Alpha  occ. eigenvalues --   -0.47780  -0.47463  -0.47291  -0.46341  -0.46262
 Alpha  occ. eigenvalues --   -0.46121  -0.46045  -0.45996  -0.45934  -0.45507
 Alpha  occ. eigenvalues --   -0.45241  -0.45068  -0.44337  -0.44002  -0.43666
 Alpha  occ. eigenvalues --   -0.43432  -0.43265  -0.42718  -0.42093  -0.41676
 Alpha  occ. eigenvalues --   -0.41536  -0.41512  -0.41043  -0.40584  -0.40234
 Alpha  occ. eigenvalues --   -0.40083  -0.39986  -0.39356  -0.39163  -0.38847
 Alpha  occ. eigenvalues --   -0.38545  -0.38114  -0.38004  -0.37989  -0.37822
 Alpha  occ. eigenvalues --   -0.37552  -0.37443  -0.36587  -0.36264  -0.35707
 Alpha  occ. eigenvalues --   -0.34714  -0.34348  -0.33956  -0.33798  -0.33375
 Alpha  occ. eigenvalues --   -0.33156  -0.31276  -0.30132  -0.28949  -0.28867
 Alpha  occ. eigenvalues --   -0.28520  -0.28259  -0.26962  -0.26833  -0.26713
 Alpha  occ. eigenvalues --   -0.26483  -0.26427  -0.26339  -0.25572  -0.23398
 Alpha  occ. eigenvalues --   -0.21749
 Alpha virt. eigenvalues --   -0.09447  -0.08440  -0.07456  -0.04796  -0.04177
 Alpha virt. eigenvalues --   -0.03124  -0.02792  -0.02663  -0.02283  -0.00434
 Alpha virt. eigenvalues --    0.01331   0.02814   0.03292   0.03361   0.03868

 Mulliken charges:
               1
     1  C    0.206983
     2  C    0.107803
     3  C    0.152410
     4  C   -0.075698
     5  C    0.244111
     6  C    0.339832
     7  C    0.082047
     8  N   -0.415943
     9  N   -0.376525
    10  C   -0.055277
    11  F   -0.229133
    12  F   -0.227701
    13  C    0.227474
    14  C    0.195773
    15  C    0.125567
    16  C   -0.056215
    17  C    0.218306
    18  C    0.074951
    19  C    0.339065
    20  H    0.153961
    21  N   -0.357968
    22  N   -0.420449
    23  C   -0.058434
    24  F   -0.225038
    25  F   -0.220824
    26  C    0.250673
    27  C    0.186649
    28  C    0.132338
    29  C   -0.045434
    30  C    0.235742
    31  C    0.084426
    32  C    0.340384
    33  H    0.155785
    34  N   -0.385957
    35  N   -0.437949
    36  O   -0.371469
    37  C   -0.268853
    38  C   -0.045391
    39  C   -0.121202
    40  H    0.141888
    41  C   -0.336128
    42  H    0.135291
    43  C   -0.033715
    44  F   -0.228710
    45  F   -0.224589
    46  H    0.158099
    47  H    0.166713
    48  C   -0.269762
    49  C   -0.028230
    50  C   -0.063826
    51  H    0.142451
    52  C   -0.249687
    53  H    0.143641
    54  C   -0.247752
    55  C   -0.060829
    56  C   -0.027823
    57  H    0.145191
    58  C   -0.258905
    59  H    0.139707
    60  S    0.399288
    61  S    0.393506
    62  S    0.359628
    63  C   -0.146274
    64  H    0.155391
    65  O   -0.373006
    66  C   -0.137833
    67  O   -0.373606
    68  C   -0.143638
    69  H    0.148159
    70  H    0.137360
    71  H    0.135150
    72  H    0.148860
    73  H    0.140718
    74  H    0.139826
    75  H    0.146793
    76  H    0.134001
    77  H    0.133831
 Sum of Mulliken charges =  -0.00000

 Dipole moment (field-independent basis, Debye):
    X=              2.4143    Y=             -3.3460    Z=              2.4557  Tot=              4.8016
 Quadrupole moment (field-independent basis, Debye-Ang):
   XX=           -291.5339   YY=           -280.1732   ZZ=           -337.1031
   XY=             12.4970   XZ=             19.8878   YZ=             -5.6219

 ESP charges:
               1
     1  C    0.063335
     2  C    0.057201
     3  C    0.340869
     4  C   -0.391370
     5  C    0.310079
     6  C    0.738724
     7  C   -0.080434
     8  N   -0.572114
     9  N   -0.243393
    10  C    0.015814
    11  F   -0.180188
    12  F   -0.137998
    13  C    0.166020
    14  C    0.062889
    15  C    0.267222
    16  C   -0.179860
    17  C    0.228152
    18  C    0.080188
    19  C    0.573796
    20  H    0.073503
    21  N   -0.407068
    22  N   -0.366708
    23  C   -0.084259
    24  F   -0.174722
    25  F   -0.150760
    26  C    0.175576
    27  C    0.110229
    28  C    0.172349
    29  C   -0.089722
    30  C    0.152491
    31  C   -0.011546
    32  C    0.609746
    33  H    0.098845
    34  N   -0.280765
    35  N   -0.378043
    36  O   -0.466868
    37  C    0.038048
    38  C   -0.146310
    39  C   -0.104855
    40  H    0.137585
    41  C   -0.222029
    42  H    0.114036
    43  C   -0.089312
    44  F   -0.155131
    45  F   -0.157236
    46  H    0.202091
    47  H    0.188172
    48  C    0.101473
    49  C   -0.251779
    50  C   -0.109394
    51  H    0.161550
    52  C    0.029953
    53  H    0.137420
    54  C   -0.012532
    55  C   -0.111546
    56  C   -0.250536
    57  H    0.138185
    58  C    0.138365
    59  H    0.162585
    60  S   -0.030920
    61  S   -0.043870
    62  S    0.027062
    63  C    0.235960
    64  H    0.105863
    65  O   -0.467019
    66  C    0.146189
    67  O   -0.460711
    68  C    0.220215
    69  H    0.054522
    70  H    0.015123
    71  H   -0.016259
    72  H    0.048913
    73  H    0.011742
    74  H   -0.010532
    75  H    0.076188
    76  H    0.020900
    77  H    0.026621
 Sum of ESP charges =  -0.00000

 Normal termination of Gaussian 16 at Tue Oct  3 18:35:45 2023.
